 Gaussian 16, Revision A.03,
 Gaussian 16:  ES64L-G16RevA.03 25-Dec-2016

 --------------------------
 #p 6-31g(d) m062x opt freq
 --------------------------

 -------------------
 Title Card Required
 -------------------
 Symbolic Z-matrix:
 Charge =  0 Multiplicity = 1

 SCF Done:  E(RM062X) =  -1219.22369696     A.U. after   15 cycles
 SCF Done:  E(RM062X) =  -1219.25439901     A.U. after   13 cycles
 SCF Done:  E(RM062X) =  -1219.25821035     A.U. after   13 cycles
 SCF Done:  E(RM062X) =  -1219.26359498     A.U. after   14 cycles
 SCF Done:  E(RM062X) =  -1219.26351513     A.U. after   14 cycles
 SCF Done:  E(RM062X) =  -1219.26424961     A.U. after   12 cycles
 SCF Done:  E(RM062X) =  -1219.26463220     A.U. after   11 cycles
 SCF Done:  E(RM062X) =  -1219.26465201     A.U. after   10 cycles
 SCF Done:  E(RM062X) =  -1219.26465474     A.U. after   10 cycles
 SCF Done:  E(RM062X) =  -1219.26465726     A.U. after    9 cycles
 SCF Done:  E(RM062X) =  -1219.26920140     A.U. after    9 cycles
 SCF Done:  E(RM062X) =  -1219.26920227     A.U. after    8 cycles
 SCF Done:  E(RM062X) =  -1219.26920250     A.U. after    7 cycles
 SCF Done:  E(RM062X) =  -1219.26920264     A.U. after    7 cycles
 SCF Done:  E(RM062X) =  -1219.26920268     A.U. after    6 cycles
 SCF Done:  E(RM062X) =  -1219.26920271     A.U. after    7 cycles
 SCF Done:  E(RM062X) =  -1219.26920274     A.U. after    6 cycles
 SCF Done:  E(RM062X) =  -1219.26920275     A.U. after    6 cycles
 SCF Done:  E(RM062X) =  -1219.26920275     A.U. after    6 cycles
 Optimization completed.
    -- Stationary point found.
 Normal termination of Gaussian 16 at Wed Feb 17 15:35:44 2021.

 --------------------------------------------------------------------
 #P Geom=AllCheck Guess=TCheck SCRF=Check GenChk RM062X/6-31G(d) Freq
 --------------------------------------------------------------------

 Structure from the checkpoint file:  "AB_para_methoxy.chk"
 -------------------
 Title Card Required
 -------------------
 Charge =  0 Multiplicity = 1

                         Standard orientation:
 ---------------------------------------------------------------------
 Center     Atomic      Atomic             Coordinates (Angstroms)
 Number     Number       Type             X           Y           Z
 ---------------------------------------------------------------------
      1          6           0        0.351237   -1.565146   -0.021265
      2          6           0       -0.396083    0.578101    0.013378
      3          7           0        0.897925    0.689317    0.035015
      4          7           0        1.316177   -0.631864    0.014350
      5          7           0       -0.768423   -0.759415   -0.002949
      6          6           0        2.712947   -0.897124    0.029431
      7          6           0        3.629055    0.143674   -0.013468
      8          6           0        3.158149   -2.221648    0.086036
      9          6           0        4.998387   -0.126392    0.000638
     10          6           0        4.513984   -2.488613    0.097562
     11          6           0        5.446007   -1.444269    0.055833
     12          6           0       -2.100315   -1.259612   -0.043332
     13          6           0       -2.435160   -2.233002   -0.988893
     14          6           0       -3.057689   -0.812559    0.859858
     15          6           0       -3.720305   -2.739572   -1.031030
     16          6           0       -4.361832   -1.307260    0.810112
     17          6           0       -4.695398   -2.274240   -0.138085
     18          7           0       -1.326770    1.580123   -0.008415
     19          6           0       -1.101597    2.964362   -0.047956
     20          6           0       -2.204276    3.783895   -0.321278
     21          6           0        0.145930    3.545504    0.199471
     22          6           0       -2.063228    5.163689   -0.349790
     23          6           0        0.268669    4.932128    0.165348
     24          6           0       -0.822750    5.749994   -0.107243
     25          1           0        3.274259    1.165866   -0.060566
     26          1           0        2.425648   -3.019519    0.119325
     27          1           0        5.695852    0.701975   -0.033494
     28          1           0        4.883770   -3.507440    0.141589
     29          1           0       -1.666612   -2.588436   -1.666511
     30          1           0       -2.782557   -0.091857    1.624753
     31          1           0       -4.004020   -3.498824   -1.751665
     32          1           0       -5.091356   -0.945713    1.524524
     33          1           0       -2.267203    1.277539   -0.226792
     34          1           0       -3.174104    3.330849   -0.513945
     35          1           0        1.001190    2.918362    0.411056
     36          1           0       -2.928998    5.782215   -0.565410
     37          1           0        1.241581    5.374317    0.357567
     38          1           0       -0.710542    6.828691   -0.131574
     39          8           0       -5.926669   -2.825924   -0.272097
     40          8           0        6.754781   -1.817085    0.073879
     41          6           0        7.718732   -0.790565    0.034938
     42          1           0        7.628619   -0.124548    0.902127
     43          1           0        8.690210   -1.284311    0.057425
     44          1           0        7.633416   -0.196813   -0.883670
     45          6           0       -6.932543   -2.403006    0.622552
     46          1           0       -6.661147   -2.627531    1.661002
     47          1           0       -7.127092   -1.328210    0.523355
     48          1           0       -7.829701   -2.959710    0.353747
 ---------------------------------------------------------------------

 SCF Done:  E(RM062X) =  -1219.26920275     A.U. after    1 cycles

 The electronic state is 1-A.
 Alpha  occ. eigenvalues --  -19.68175 -19.66276 -14.83181 -14.81975 -14.80725
 Alpha  occ. eigenvalues --  -14.77452 -10.65815 -10.62447 -10.60995 -10.60124
 Alpha  occ. eigenvalues --  -10.60122 -10.60087 -10.59479 -10.58035 -10.57212
 Alpha  occ. eigenvalues --  -10.56629 -10.56537 -10.56044 -10.56008 -10.55294
 Alpha  occ. eigenvalues --  -10.55207 -10.54918 -10.54466 -10.54358 -10.54327
 Alpha  occ. eigenvalues --  -10.54275 -10.54225 -10.53933  -1.20343  -1.19490
 Alpha  occ. eigenvalues --   -1.18362  -1.08432  -1.04829  -0.97547  -0.95844
 Alpha  occ. eigenvalues --   -0.95103  -0.92236  -0.87120  -0.85989  -0.84972
 Alpha  occ. eigenvalues --   -0.84207  -0.84000  -0.82609  -0.80797  -0.78226
 Alpha  occ. eigenvalues --   -0.73518  -0.73071  -0.71771  -0.70052  -0.69143
 Alpha  occ. eigenvalues --   -0.67563  -0.65786  -0.65258  -0.63455  -0.61968
 Alpha  occ. eigenvalues --   -0.60352  -0.60075  -0.58063  -0.57679  -0.55985
 Alpha  occ. eigenvalues --   -0.55809  -0.55677  -0.55037  -0.54247  -0.53768
 Alpha  occ. eigenvalues --   -0.52978  -0.51049  -0.50668  -0.50420  -0.49847
 Alpha  occ. eigenvalues --   -0.49290  -0.48790  -0.48417  -0.47898  -0.47279
 Alpha  occ. eigenvalues --   -0.46704  -0.46305  -0.44685  -0.44548  -0.43842
 Alpha  occ. eigenvalues --   -0.42422  -0.41944  -0.41889  -0.41081  -0.40590
 Alpha  occ. eigenvalues --   -0.40321  -0.38616  -0.38349  -0.37385  -0.35843
 Alpha  occ. eigenvalues --   -0.32324  -0.32188  -0.30310  -0.29848  -0.28185
 Alpha  occ. eigenvalues --   -0.27683  -0.26752  -0.23726
 Alpha virt. eigenvalues --    0.01511   0.02370   0.02966   0.03646   0.04152
 Alpha virt. eigenvalues --    0.05000   0.11044   0.11644   0.12251   0.12830
 Alpha virt. eigenvalues --    0.14002   0.14422   0.14815   0.15971   0.17391

 Mulliken charges:
               1
     1  C    0.196670
     2  C    0.814218
     3  N   -0.429847
     4  N   -0.431347
     5  N   -0.652357
     6  C    0.303041
     7  C   -0.178026
     8  C   -0.181120
     9  C   -0.233888
    10  C   -0.211567
    11  C    0.369827
    12  C    0.239141
    13  C   -0.148651
    14  C   -0.206301
    15  C   -0.210577
    16  C   -0.229963
    17  C    0.372333
    18  N   -0.813859
    19  C    0.334260
    20  C   -0.224986
    21  C   -0.174203
    22  C   -0.166706
    23  C   -0.179998
    24  C   -0.163217
    25  H    0.195740
    26  H    0.203399
    27  H    0.162547
    28  H    0.175195
    29  H    0.197646
    30  H    0.193948
    31  H    0.186807
    32  H    0.173523
    33  H    0.368913
    34  H    0.154770
    35  H    0.216808
    36  H    0.163835
    37  H    0.164751
    38  H    0.160824
    39  O   -0.528638
    40  O   -0.534488
    41  C   -0.239305
    42  H    0.161388
    43  H    0.186965
    44  H    0.161555
    45  C   -0.245306
    46  H    0.167888
    47  H    0.163568
    48  H    0.194791
 Sum of Mulliken charges =  -0.00000

 Dipole moment (field-independent basis, Debye):
    X=             -3.5235    Y=              2.0711    Z=              0.5081  Tot=              4.1186
 Quadrupole moment (field-independent basis, Debye-Ang):
   XX=           -115.2709   YY=           -159.8979   ZZ=           -164.2475
   XY=              8.8785   XZ=             -5.6887   YZ=              0.3361

  Exact polarizability: 392.932   5.393 295.560   1.343  12.947 126.397
 Approx polarizability: 418.766  11.546 358.228   3.906  23.351 179.626

                      1                      2                      3
                      A                      A                      A
 Frequencies --     20.3253                25.3713                29.0304
 Red. masses --      3.4494                 6.0299                 3.8542
 Frc consts  --      0.0008                 0.0023                 0.0019
 IR Inten    --      0.9236                 0.4314                 0.3001

                      4                      5                      6
                      A                      A                      A
 Frequencies --     36.4223                38.2925                47.4309
 Red. masses --      4.7101                 3.9802                 5.2256
 Frc consts  --      0.0037                 0.0034                 0.0069
 IR Inten    --      0.4896                 0.4416                 0.2451

                      7                      8                      9
                      A                      A                      A
 Frequencies --     64.5361                88.8517                97.6623
 Red. masses --      4.5274                 4.6937                 3.8819
 Frc consts  --      0.0111                 0.0218                 0.0218
 IR Inten    --      0.5043                 2.7461                 1.7707

                     10                     11                     12
                      A                      A                      A
 Frequencies --    114.2819               144.5312               178.5621
 Red. masses --      4.7653                 5.2164                 4.6987
 Frc consts  --      0.0367                 0.0642                 0.0883
 IR Inten    --      0.9163                 4.1316                 3.2588

                     13                     14                     15
                      A                      A                      A
 Frequencies --    184.0250               191.6960               223.3946
 Red. masses --      5.4308                 5.1549                 5.0231
 Frc consts  --      0.1084                 0.1116                 0.1477
 IR Inten    --      1.3280                 0.3048                 1.6726

                     16                     17                     18
                      A                      A                      A
 Frequencies --    236.5685               258.9435               274.3427
 Red. masses --      4.3345                 4.0988                 1.3237
 Frc consts  --      0.1429                 0.1619                 0.0587
 IR Inten    --      1.5796                 2.1718                 1.3675

                     19                     20                     21
                      A                      A                      A
 Frequencies --    283.0424               292.0665               321.9882
 Red. masses --      1.4015                 2.8309                 4.7508
 Frc consts  --      0.0662                 0.1423                 0.2902
 IR Inten    --      0.1125                 6.3047                 3.5108

                     22                     23                     24
                      A                      A                      A
 Frequencies --    330.8622               383.5234               392.6172
 Red. masses --      4.2562                 5.7903                 6.3122
 Frc consts  --      0.2745                 0.5018                 0.5733
 IR Inten    --      0.8023                 2.9016                 0.7296

                     25                     26                     27
                      A                      A                      A
 Frequencies --    417.3471               422.5740               429.1740
 Red. masses --      2.7867                 2.9958                 3.8391
 Frc consts  --      0.2860                 0.3152                 0.4166
 IR Inten    --      5.4308                11.1939                 9.3032

                     28                     29                     30
                      A                      A                      A
 Frequencies --    429.7890               451.1227               458.3124
 Red. masses --      2.9181                 5.9496                 1.5526
 Frc consts  --      0.3176                 0.7134                 0.1921
 IR Inten    --      7.3662                 0.5005                46.5445

                     31                     32                     33
                      A                      A                      A
 Frequencies --    511.3812               511.5071               517.6485
 Red. masses --      3.9391                 3.9932                 3.1523
 Frc consts  --      0.6069                 0.6156                 0.4977
 IR Inten    --      0.2447                 0.4860                 3.7851

                     34                     35                     36
                      A                      A                      A
 Frequencies --    529.5695               544.1131               567.7829
 Red. masses --      3.2463                 2.6397                 3.4979
 Frc consts  --      0.5364                 0.4605                 0.6644
 IR Inten    --      1.5571                 5.6620                18.5395

                     37                     38                     39
                      A                      A                      A
 Frequencies --    616.7744               625.0175               633.9242
 Red. masses --      5.9445                 6.3295                 8.4350
 Frc consts  --      1.3324                 1.4568                 1.9971
 IR Inten    --     20.8775                16.5916                 8.7014

                     40                     41                     42
                      A                      A                      A
 Frequencies --    640.9624               647.9602               654.9333
 Red. masses --      6.6430                 6.8474                 7.0750
 Frc consts  --      1.6080                 1.6938                 1.7880
 IR Inten    --     22.7629                 5.4575                18.0346

                     43                     44                     45
                      A                      A                      A
 Frequencies --    683.5840               708.5239               724.0413
 Red. masses --      5.8790                 2.2057                 6.2338
 Frc consts  --      1.6186                 0.6524                 1.9254
 IR Inten    --     34.0629                14.7302                 2.6059

                     46                     47                     48
                      A                      A                      A
 Frequencies --    729.6569               739.9242               776.1280
 Red. masses --      5.9929                 4.7092                 1.6225
 Frc consts  --      1.8798                 1.5191                 0.5758
 IR Inten    --      5.7584                 1.9213                57.3501

                     49                     50                     51
                      A                      A                      A
 Frequencies --    820.8366               830.0941               840.0616
 Red. masses --      5.6622                 5.4465                 1.2887
 Frc consts  --      2.2478                 2.2112                 0.5358
 IR Inten    --      5.7170                 0.8383                 9.9068

                     52                     53                     54
                      A                      A                      A
 Frequencies --    842.0381               853.8540               864.6295
 Red. masses --      1.2631                 1.2621                 3.9221
 Frc consts  --      0.5277                 0.5421                 1.7275
 IR Inten    --      4.9390                 0.3087                22.2781

                     55                     56                     57
                      A                      A                      A
 Frequencies --    866.2580               868.7909               904.1257
 Red. masses --      1.9371                 1.6026                 6.1382
 Frc consts  --      0.8564                 0.7127                 2.9563
 IR Inten    --     28.3260                57.7161                12.9292

                     58                     59                     60
                      A                      A                      A
 Frequencies --    919.8149               964.4213               965.9168
 Red. masses --      1.4275                 1.3202                 1.2930
 Frc consts  --      0.7116                 0.7235                 0.7108
 IR Inten    --      6.7738                 0.7112                 0.9243

                     61                     62                     63
                      A                      A                      A
 Frequencies --    983.3331               985.2843               987.0129
 Red. masses --      1.4668                 1.8894                 2.4833
 Frc consts  --      0.8356                 1.0807                 1.4254
 IR Inten    --      4.6948                10.4434                18.5583

                     64                     65                     66
                      A                      A                      A
 Frequencies --    998.4016              1012.4972              1016.5884
 Red. masses --      1.2922                 1.2806                 5.4008
 Frc consts  --      0.7589                 0.7735                 3.2885
 IR Inten    --      0.3291                 0.5564                 0.5572

                     67                     68                     69
                      A                      A                      A
 Frequencies --   1028.3965              1035.3814              1073.1871
 Red. masses --      3.6461                 2.7018                 2.4282
 Frc consts  --      2.2720                 1.7065                 1.6477
 IR Inten    --      3.5006                 2.3704                 5.5316

                     70                     71                     72
                      A                      A                      A
 Frequencies --   1081.6205              1120.0983              1124.7426
 Red. masses --      2.8049                 3.1920                 3.6609
 Frc consts  --      1.9334                 2.3595                 2.7286
 IR Inten    --      3.1466                69.9763                23.9197

                     73                     74                     75
                      A                      A                      A
 Frequencies --   1128.5847              1139.8172              1142.5667
 Red. masses --      3.3178                 1.4096                 1.2800
 Frc consts  --      2.4898                 1.0790                 0.9845
 IR Inten    --     26.6057                 5.0332                16.8632

                     76                     77                     78
                      A                      A                      A
 Frequencies --   1148.7078              1187.8008              1193.7731
 Red. masses --      1.8707                 1.1052                 1.2765
 Frc consts  --      1.4544                 0.9187                 1.0718
 IR Inten    --      1.3465                 1.1674                 1.1065

                     79                     80                     81
                      A                      A                      A
 Frequencies --   1194.7371              1204.0901              1205.5588
 Red. masses --      1.2766                 1.1517                 1.1824
 Frc consts  --      1.0737                 0.9838                 1.0125
 IR Inten    --      1.1982                52.3789                43.6646

                     82                     83                     84
                      A                      A                      A
 Frequencies --   1219.1259              1225.3321              1227.5199
 Red. masses --      1.1202                 1.7456                 1.4380
 Frc consts  --      0.9810                 1.5442                 1.2767
 IR Inten    --      4.2455                20.6562                 4.3837

                     85                     86                     87
                      A                      A                      A
 Frequencies --   1230.2087              1292.6669              1295.7067
 Red. masses --      3.0048                 3.2067                 2.6525
 Frc consts  --      2.6793                 3.1570                 2.6238
 IR Inten    --     28.9630                35.9679                17.0363

                     88                     89                     90
                      A                      A                      A
 Frequencies --   1311.4405              1319.2008              1322.0317
 Red. masses --      3.1095                 3.8749                 4.4884
 Frc consts  --      3.1509                 3.9731                 4.6219
 IR Inten    --      9.3950               329.7762                67.1416

                     91                     92                     93
                      A                      A                      A
 Frequencies --   1338.1994              1344.7955              1362.1945
 Red. masses --      1.4764                 1.8836                 4.7231
 Frc consts  --      1.5577                 2.0070                 5.1636
 IR Inten    --     35.3013                 6.7688               274.3141

                     94                     95                     96
                      A                      A                      A
 Frequencies --   1367.3247              1368.6312              1378.3090
 Red. masses --      4.5733                 2.2485                 2.4517
 Frc consts  --      5.0376                 2.4815                 2.7441
 IR Inten    --     22.2407                13.2189               102.4899

                     97                     98                     99
                      A                      A                      A
 Frequencies --   1430.0648              1465.5300              1487.8990
 Red. masses --      5.0487                 4.5185                 3.4437
 Frc consts  --      6.0833                 5.7178                 4.4918
 IR Inten    --      4.6896                 6.3807                 5.4967

                    100                    101                    102
                      A                      A                      A
 Frequencies --   1494.5873              1504.7974              1506.4686
 Red. masses --      3.0399                 1.2463                 1.3654
 Frc consts  --      4.0009                 1.6627                 1.8256
 IR Inten    --      3.8331                49.7666                14.8573

                    103                    104                    105
                      A                      A                      A
 Frequencies --   1515.3648              1528.4581              1528.8553
 Red. masses --      2.6847                 1.0456                 1.0451
 Frc consts  --      3.6323                 1.4392                 1.4393
 IR Inten    --     48.6770                 6.1385                 7.3535

                    106                    107                    108
                      A                      A                      A
 Frequencies --   1541.5756              1543.2141              1560.8980
 Red. masses --      1.0593                 1.0629                 2.3389
 Frc consts  --      1.4832                 1.4915                 3.3575
 IR Inten    --     58.9874                47.2368                85.0070

                    109                    110                    111
                      A                      A                      A
 Frequencies --   1583.1629              1593.0251              1616.6722
 Red. masses --      2.9267                 3.3022                 2.3795
 Frc consts  --      4.3220                 4.9375                 3.6642
 IR Inten    --    689.6771                47.2069               478.4912

                    112                    113                    114
                      A                      A                      A
 Frequencies --   1672.2933              1680.8764              1686.6976
 Red. masses --      7.5578                 7.0541                 5.3885
 Frc consts  --     12.4529                11.7426                 9.0322
 IR Inten    --     31.0172                98.8902                 9.9675

                    115                    116                    117
                      A                      A                      A
 Frequencies --   1699.0971              1711.7200              1715.2433
 Red. masses --      6.1684                 6.4414                 6.5232
 Frc consts  --     10.4921                11.1198                11.3073
 IR Inten    --    275.7301                55.6516                 3.9242

                    118                    119                    120
                      A                      A                      A
 Frequencies --   1725.3470              3058.1006              3063.3458
 Red. masses --     10.5614                 1.0351                 1.0350
 Frc consts  --     18.5236                 5.7036                 5.7225
 IR Inten    --    303.6485                52.9449                45.0217

                    121                    122                    123
                      A                      A                      A
 Frequencies --   3121.0480              3128.4145              3196.0674
 Red. masses --      1.1062                 1.1066                 1.1001
 Frc consts  --      6.3488                 6.3808                 6.6206
 IR Inten    --     39.3263                34.1285                29.1375

                    124                    125                    126
                      A                      A                      A
 Frequencies --   3202.4218              3204.5270              3224.3282
 Red. masses --      1.1004                 1.0889                 1.0876
 Frc consts  --      6.6491                 6.5882                 6.6621
 IR Inten    --     22.8658                11.4676                 0.7889

                    127                    128                    129
                      A                      A                      A
 Frequencies --   3229.1990              3232.3853              3247.5120
 Red. masses --      1.0910                 1.0929                 1.0898
 Frc consts  --      6.7032                 6.7279                 6.7716
 IR Inten    --      5.1352                18.3659                 6.7039

                    130                    131                    132
                      A                      A                      A
 Frequencies --   3247.5996              3248.7807              3257.5269
 Red. masses --      1.0893                 1.0976                 1.0886
 Frc consts  --      6.7688                 6.8255                 6.8059
 IR Inten    --      2.6599                17.1487                 9.4400

                    133                    134                    135
                      A                      A                      A
 Frequencies --   3260.9175              3265.2156              3268.5943
 Red. masses --      1.0961                 1.0922                 1.0942
 Frc consts  --      6.8674                 6.8606                 6.8877
 IR Inten    --      0.2134                 4.7825                 0.6830

                    136                    137                    138
                      A                      A                      A
 Frequencies --   3273.3169              3287.5192              3627.5123
 Red. masses --      1.0938                 1.0927                 1.0763
 Frc consts  --      6.9050                 6.9581                 8.3448
 IR Inten    --      0.8804                 6.1017                79.5069

 - Thermochemistry -
 -------------------
 Temperature   298.150 Kelvin.  Pressure   1.00000 Atm.
 Atom     1 has atomic number  6 and mass  12.00000

 Molecular mass:   372.15863 amu.
 Principal axes and moments of inertia in atomic units:
                           1         2         3
     Eigenvalues --  8830.07100********************
           X            0.99998   0.00573  -0.00259
           Y           -0.00573   0.99998  -0.00054
           Z            0.00259   0.00056   1.00000
 This molecule is an asymmetric top.
 Rotational symmetry number  1.
 Warning -- assumption of classical behavior for rotation
           may cause significant error
 Rotational temperatures (Kelvin)      0.00981     0.00439     0.00309
 Rotational constants (GHZ):           0.20439     0.09151     0.06430
 Zero-point vibrational energy    1021622.9 (Joules/Mol)
                                  244.17373 (Kcal/Mol)
 Warning -- explicit consideration of  37 degrees of freedom as
           vibrations may cause significant error
 Vibrational temperatures:     29.24    36.50    41.77    52.40    55.09
          (Kelvin)             68.24    92.85   127.84   140.51   164.43
                              207.95   256.91   264.77   275.81   321.42
                              340.37   372.56   394.72   407.23   420.22
                              463.27   476.04   551.80   564.89   600.47
                              607.99   617.49   618.37   649.06   659.41
                              735.76   735.94   744.78   761.93   782.86
                              816.91   887.40   899.26   912.08   922.20
                              932.27   942.30   983.52  1019.41  1041.73
                             1049.81  1064.59  1116.68  1181.00  1194.32
                             1208.66  1211.51  1228.51  1244.01  1246.35
                             1250.00  1300.84  1323.41  1387.59  1389.74
                             1414.80  1417.60  1420.09  1436.48  1456.76
                             1462.64  1479.63  1489.68  1544.08  1556.21
                             1611.57  1618.25  1623.78  1639.94  1643.90
                             1652.73  1708.98  1717.57  1718.96  1732.42
                             1734.53  1754.05  1762.98  1766.13  1770.00
                             1859.86  1864.23  1886.87  1898.04  1902.11
                             1925.37  1934.86  1959.89  1967.28  1969.15
                             1983.08  2057.54  2108.57  2140.75  2150.38
                             2165.07  2167.47  2180.27  2199.11  2199.68
                             2217.98  2220.34  2245.78  2277.82  2292.01
                             2326.03  2406.06  2418.41  2426.78  2444.62
                             2462.78  2467.85  2482.39  4399.92  4407.47
                             4490.49  4501.09  4598.43  4607.57  4610.60
                             4639.09  4646.10  4650.68  4672.45  4672.57
                             4674.27  4686.85  4691.73  4697.92  4702.78
                             4709.57  4730.01  5219.18

 Zero-point correction=                           0.389116 (Hartree/Particle)
 Thermal correction to Energy=                    0.412708
 Thermal correction to Enthalpy=                  0.413652
 Thermal correction to Gibbs Free Energy=         0.332814
 Sum of electronic and zero-point Energies=          -1218.880087
 Sum of electronic and thermal Energies=             -1218.856495
 Sum of electronic and thermal Enthalpies=           -1218.855550
 Sum of electronic and thermal Free Energies=        -1218.936389

                     E (Thermal)             CV                S
                      KCal/Mol        Cal/Mol-Kelvin    Cal/Mol-Kelvin
 Total                  258.978             91.746            170.138
 Electronic               0.000              0.000              0.000
 Translational            0.889              2.981             43.635
 Rotational               0.889              2.981             36.834
 Vibrational            257.201             85.784             89.670
 Vibration     1          0.593              1.986              6.602
 Vibration     2          0.593              1.985              6.162
 Vibration     3          0.593              1.984              5.895
 Vibration     4          0.594              1.982              5.445
 Vibration     5          0.594              1.982              5.346
 Vibration     6          0.595              1.979              4.922
 Vibration     7          0.597              1.971              4.313
 Vibration     8          0.602              1.957              3.685
 Vibration     9          0.603              1.951              3.500
 Vibration    10          0.607              1.938              3.195
 Vibration    11          0.616              1.909              2.743
 Vibration    12          0.629              1.869              2.343
 Vibration    13          0.631              1.862              2.287
 Vibration    14          0.634              1.851              2.211
 Vibration    15          0.649              1.805              1.931
 Vibration    16          0.655              1.785              1.829
 Vibration    17          0.668              1.748              1.669
 Vibration    18          0.677              1.721              1.569
 Vibration    19          0.682              1.705              1.515
 Vibration    20          0.687              1.689              1.462
 Vibration    21          0.707              1.631              1.300
 Vibration    22          0.713              1.614              1.256
 Vibration    23          0.753              1.505              1.025
 Vibration    24          0.760              1.486              0.990
 Vibration    25          0.780              1.433              0.901
 Vibration    26          0.785              1.421              0.883
 Vibration    27          0.791              1.407              0.861
 Vibration    28          0.791              1.405              0.859
 Vibration    29          0.810              1.358              0.792
 Vibration    30          0.816              1.343              0.771
 Vibration    31          0.866              1.225              0.630
 Vibration    32          0.867              1.224              0.630
 Vibration    33          0.873              1.211              0.615
 Vibration    34          0.885              1.185              0.588
 Vibration    35          0.899              1.153              0.557
 Vibration    36          0.924              1.101              0.509
 Vibration    37          0.976              0.996              0.422

 Optimization completed.
    -- Stationary point found.
 Normal termination of Gaussian 16 at Wed Feb 17 15:50:20 2021.
